 #
 # Generated by SCP.
 #
 BEGIN_BLOCK_DATAGRID_3D
 3D_field
 BEGIN_DATAGRID_3D_UNKNOWN
    36    36    36
    -0.116785    -0.116785    -0.116785
  0.116785000  0.000000000  0.000000000
  0.000000000  0.116785000  0.000000000
  0.000000000  0.000000000  0.116785000
  0.015670545  0.011336414  0.004949646 -0.000486203 -0.003337868 -0.003664277
 -0.002441772 -0.000853809  0.000296710  0.001017762  0.001784416  0.002673848
  0.003332217  0.003947220  0.005480557  0.008305751  0.011166480  0.012378385
  0.011919964  0.011427109  0.011919964  0.012378385  0.011166480  0.008305751
  0.005480557  0.003947220  0.003332217  0.002673848  0.001784416  0.001017762
  0.000296710 -0.000853809 -0.002441772 -0.003664277 -0.003337868 -0.000486203
  0.011336414  0.007080601  0.001228894 -0.003138860 -0.004561258 -0.003593651
 -0.001654582  0.000069591  0.001103414  0.001657444  0.002103457  0.002405080
  0.002318669  0.001992676  0.001585173  0.000065079 -0.004551632 -0.012664447
 -0.021067715 -0.024696048 -0.021067715 -0.012664447 -0.004551632  0.000065079
  0.001585173  0.001992676  0.002318669  0.002405080  0.002103457  0.001657444
  0.001103414  0.000069591 -0.001654582 -0.003593651 -0.004561258 -0.003138860
  0.004949646  0.001228894 -0.003083335 -0.005495759 -0.005167074 -0.003089295
 -0.000770956  0.000843423  0.001593463  0.001838450  0.001969440  0.002011006
  0.001806605  0.001444552  0.000906457 -0.000804911 -0.005286377 -0.012635555
 -0.019992322 -0.023122180 -0.019992322 -0.012635555 -0.005286377 -0.000804911
  0.000906457  0.001444552  0.001806605  0.002011006  0.001969440  0.001838450
  0.001593463  0.000843423 -0.000770956 -0.003089295 -0.005167074 -0.005495759
 -0.000486203 -0.003138860 -0.005495759 -0.006069064 -0.004643083 -0.002243412
 -0.000053522  0.001318452  0.001854699  0.001925636  0.001985383  0.002181249
  0.002350079  0.002448922  0.002609806  0.002592599  0.001668173 -0.000477699
 -0.002911301 -0.003995178 -0.002911301 -0.000477699  0.001668173  0.002592599
  0.002609806  0.002448922  0.002350079  0.002181249  0.001985383  0.001925636
  0.001854699  0.001318452 -0.000053522 -0.002243412 -0.004643083 -0.006069064
 -0.003337868 -0.004561258 -0.005167074 -0.004643083 -0.003065798 -0.001098220
  0.000601030  0.001705194  0.002170581  0.002246815  0.002384631  0.002799616
  0.003264514  0.003552912  0.003847538  0.004444206  0.005269394  0.005966668
  0.006330763  0.006425888  0.006330763  0.005966668  0.005269394  0.004444206
  0.003847538  0.003552912  0.003264514  0.002799616  0.002384631  0.002246815
  0.002170581  0.001705194  0.000601030 -0.001098220 -0.003065798 -0.004643083
 -0.003664277 -0.003593651 -0.003089295 -0.002243412 -0.001098220  0.000128296
  0.001208680  0.002009902  0.002434474  0.002552602  0.002679545  0.003007947
  0.003311639  0.003300575  0.003085973  0.003008296  0.003165378  0.003371502
  0.003475462  0.003495897  0.003475462  0.003371502  0.003165378  0.003008296
  0.003085973  0.003300575  0.003311639  0.003007947  0.002679545  0.002552602
  0.002434474  0.002009902  0.001208680  0.000128296 -0.001098220 -0.002243412
 -0.002441772 -0.001654582 -0.000770956 -0.000053522  0.000601030  0.001208680
  0.001735682  0.002192765  0.002497900  0.002551968  0.002457591  0.002364123
  0.002177591  0.001723906  0.001071842  0.000406548 -0.000279136 -0.001077293
 -0.001827935 -0.002147049 -0.001827935 -0.001077293 -0.000279136  0.000406548
  0.001071842  0.001723906  0.002177591  0.002364123  0.002457591  0.002551968
  0.002497900  0.002192765  0.001735682  0.001208680  0.000601030 -0.000053522
 -0.000853809  0.000069591  0.000843423  0.001318452  0.001705194  0.002009902
  0.002192765  0.002351694  0.002452620  0.002285569  0.001822289  0.001255566
  0.000662507 -0.000030984 -0.000792945 -0.001521521 -0.002282554 -0.003191546
 -0.004060266 -0.004432610 -0.004060266 -0.003191546 -0.002282554 -0.001521521
 -0.000792945 -0.000030984  0.000662507  0.001255566  0.001822289  0.002285569
  0.002452620  0.002351694  0.002192765  0.002009902  0.001705194  0.001318452
  0.000296710  0.001103414  0.001593463  0.001854699  0.002170581  0.002434474
  0.002497900  0.002452620  0.002281591  0.001775804  0.000971779  0.000191673
 -0.000442621 -0.001096903 -0.001811999 -0.002444060 -0.003031567 -0.003778825
 -0.004580590 -0.004946228 -0.004580590 -0.003778825 -0.003031567 -0.002444060
 -0.001811999 -0.001096903 -0.000442621  0.000191673  0.000971779  0.001775804
  0.002281591  0.002452620  0.002497900  0.002434474  0.002170581  0.001854699
  0.001017762  0.001657444  0.001838450  0.001925636  0.002246815  0.002552602
  0.002551968  0.002285569  0.001775804  0.000947735  0.000022776 -0.000607386
 -0.000964653 -0.001381409 -0.001836648 -0.002023699 -0.002079923 -0.002538001
 -0.003385157 -0.003836881 -0.003385157 -0.002538001 -0.002079923 -0.002023699
 -0.001836648 -0.001381409 -0.000964653 -0.000607386  0.000022776  0.000947735
  0.001775804  0.002285569  0.002551968  0.002552602  0.002246815  0.001925636
  0.001784416  0.002103457  0.001969440  0.001985383  0.002384631  0.002679545
  0.002457591  0.001822289  0.000971779  0.000022776 -0.000710411 -0.000936293
 -0.000878433 -0.000879277 -0.000623562  0.000413923  0.001787762  0.002340572
  0.001848256  0.001427359  0.001848256  0.002340572  0.001787762  0.000413923
 -0.000623562 -0.000879277 -0.000878433 -0.000936293 -0.000710411  0.000022776
  0.000971779  0.001822289  0.002457591  0.002679545  0.002384631  0.001985383
  0.002673848  0.002405080  0.002011006  0.002181249  0.002799616  0.003007947
  0.002364123  0.001255566  0.000191673 -0.000607386 -0.000936293 -0.000649733
  0.000015347  0.000866718  0.002413069  0.005205759  0.008521146  0.010737759
  0.011289174  0.011210022  0.011289174  0.010737759  0.008521146  0.005205759
  0.002413069  0.000866718  0.000015347 -0.000649733 -0.000936293 -0.000607386
  0.000191673  0.001255566  0.002364123  0.003007947  0.002799616  0.002181249
  0.003332217  0.002318669  0.001806605  0.002350079  0.003264514  0.003311639
  0.002177591  0.000662507 -0.000442621 -0.000964653 -0.000878433  0.000015347
  0.001794289  0.004408445  0.008067277  0.012958351  0.018387162  0.022878344
  0.025450234  0.026211562  0.025450234  0.022878344  0.018387162  0.012958351
  0.008067277  0.004408445  0.001794289  0.000015347 -0.000878433 -0.000964653
 -0.000442621  0.000662507  0.002177591  0.003311639  0.003264514  0.002350079
  0.003947220  0.001992676  0.001444552  0.002448922  0.003552912  0.003300575
  0.001723906 -0.000030984 -0.001096903 -0.001381409 -0.000879277  0.000866718
  0.004408445  0.009852668  0.016919277  0.025266591  0.034380018  0.043103589
  0.049584419  0.052000370  0.049584419  0.043103589  0.034380018  0.025266591
  0.016919277  0.009852668  0.004408445  0.000866718 -0.000879277 -0.001381409
 -0.001096903 -0.000030984  0.001723906  0.003300575  0.003552912  0.002448922
  0.005480557  0.001585173  0.000906457  0.002609806  0.003847538  0.003085973
  0.001071842 -0.000792945 -0.001811999 -0.001836648 -0.000623562  0.002413069
  0.008067277  0.016919277  0.028889130  0.043279160  0.059055664  0.074434276
  0.086227148  0.090727726  0.086227148  0.074434276  0.059055664  0.043279160
  0.028889130  0.016919277  0.008067277  0.002413069 -0.000623562 -0.001836648
 -0.001811999 -0.000792945  0.001071842  0.003085973  0.003847538  0.002609806
  0.008305751  0.000065079 -0.000804911  0.002592599  0.004444206  0.003008296
  0.000406548 -0.001521521 -0.002444060 -0.002023699  0.000413923  0.005205759
  0.012958351  0.025266591  0.043279160  0.065658095  0.088852388  0.108962619
  0.122714676  0.127635008  0.122714676  0.108962619  0.088852388  0.065658095
  0.043279160  0.025266591  0.012958351  0.005205759  0.000413923 -0.002023699
 -0.002444060 -0.001521521  0.000406548  0.003008296  0.004444206  0.002592599
  0.011166480 -0.004551632 -0.005286377  0.001668173  0.005269394  0.003165378
 -0.000279136 -0.002282554 -0.003031567 -0.002079923  0.001787762  0.008521146
  0.018387162  0.034380018  0.059055664  0.088852388  0.114845801  0.130284796
  0.135827116  0.136709404  0.135827116  0.130284796  0.114845801  0.088852388
  0.059055664  0.034380018  0.018387162  0.008521146  0.001787762 -0.002079923
 -0.003031567 -0.002282554 -0.000279136  0.003165378  0.005269394  0.001668173
  0.012378385 -0.012664447 -0.012635555 -0.000477699  0.005966668  0.003371502
 -0.001077293 -0.003191546 -0.003778825 -0.002538001  0.002340572  0.010737759
  0.022878344  0.043103589  0.074434276  0.108962619  0.130284796  0.129345413
  0.115348311  0.107447234  0.115348311  0.129345413  0.130284796  0.108962619
  0.074434276  0.043103589  0.022878344  0.010737759  0.002340572 -0.002538001
 -0.003778825 -0.003191546 -0.001077293  0.003371502  0.005966668 -0.000477699
  0.011919964 -0.021067715 -0.019992322 -0.002911301  0.006330763  0.003475462
 -0.001827935 -0.004060266 -0.004580590 -0.003385157  0.001848256  0.011289174
  0.025450234  0.049584419  0.086227148  0.122714676  0.135827116  0.115348311
  0.079787210  0.062430453  0.079787210  0.115348311  0.135827116  0.122714676
  0.086227148  0.049584419  0.025450234  0.011289174  0.001848256 -0.003385157
 -0.004580590 -0.004060266 -0.001827935  0.003475462  0.006330763 -0.002911301
  0.011427109 -0.024696048 -0.023122180 -0.003995178  0.006425888  0.003495897
 -0.002147049 -0.004432610 -0.004946228 -0.003836881  0.001427359  0.011210022
  0.026211562  0.052000370  0.090727726  0.127635008  0.136709404  0.107447234
  0.062430453  0.040963056  0.062430453  0.107447234  0.136709404  0.127635008
  0.090727726  0.052000370  0.026211562  0.011210022  0.001427359 -0.003836881
 -0.004946228 -0.004432610 -0.002147049  0.003495897  0.006425888 -0.003995178
  0.011919964 -0.021067715 -0.019992322 -0.002911301  0.006330763  0.003475462
 -0.001827935 -0.004060266 -0.004580590 -0.003385157  0.001848256  0.011289174
  0.025450234  0.049584419  0.086227148  0.122714676  0.135827116  0.115348311
  0.079787210  0.062430453  0.079787210  0.115348311  0.135827116  0.122714676
  0.086227148  0.049584419  0.025450234  0.011289174  0.001848256 -0.003385157
 -0.004580590 -0.004060266 -0.001827935  0.003475462  0.006330763 -0.002911301
  0.012378385 -0.012664447 -0.012635555 -0.000477699  0.005966668  0.003371502
 -0.001077293 -0.003191546 -0.003778825 -0.002538001  0.002340572  0.010737759
  0.022878344  0.043103589  0.074434276  0.108962619  0.130284796  0.129345413
  0.115348311  0.107447234  0.115348311  0.129345413  0.130284796  0.108962619
  0.074434276  0.043103589  0.022878344  0.010737759  0.002340572 -0.002538001
 -0.003778825 -0.003191546 -0.001077293  0.003371502  0.005966668 -0.000477699
  0.011166480 -0.004551632 -0.005286377  0.001668173  0.005269394  0.003165378
 -0.000279136 -0.002282554 -0.003031567 -0.002079923  0.001787762  0.008521146
  0.018387162  0.034380018  0.059055664  0.088852388  0.114845801  0.130284796
  0.135827116  0.136709404  0.135827116  0.130284796  0.114845801  0.088852388
  0.059055664  0.034380018  0.018387162  0.008521146  0.001787762 -0.002079923
 -0.003031567 -0.002282554 -0.000279136  0.003165378  0.005269394  0.001668173
  0.008305751  0.000065079 -0.000804911  0.002592599  0.004444206  0.003008296
  0.000406548 -0.001521521 -0.002444060 -0.002023699  0.000413923  0.005205759
  0.012958351  0.025266591  0.043279160  0.065658095  0.088852388  0.108962619
  0.122714676  0.127635008  0.122714676  0.108962619  0.088852388  0.065658095
  0.043279160  0.025266591  0.012958351  0.005205759  0.000413923 -0.002023699
 -0.002444060 -0.001521521  0.000406548  0.003008296  0.004444206  0.002592599
  0.005480557  0.001585173  0.000906457  0.002609806  0.003847538  0.003085973
  0.001071842 -0.000792945 -0.001811999 -0.001836648 -0.000623562  0.002413069
  0.008067277  0.016919277  0.028889130  0.043279160  0.059055664  0.074434276
  0.086227148  0.090727726  0.086227148  0.074434276  0.059055664  0.043279160
  0.028889130  0.016919277  0.008067277  0.002413069 -0.000623562 -0.001836648
 -0.001811999 -0.000792945  0.001071842  0.003085973  0.003847538  0.002609806
  0.003947220  0.001992676  0.001444552  0.002448922  0.003552912  0.003300575
  0.001723906 -0.000030984 -0.001096903 -0.001381409 -0.000879277  0.000866718
  0.004408445  0.009852668  0.016919277  0.025266591  0.034380018  0.043103589
  0.049584419  0.052000370  0.049584419  0.043103589  0.034380018  0.025266591
  0.016919277  0.009852668  0.004408445  0.000866718 -0.000879277 -0.001381409
 -0.001096903 -0.000030984  0.001723906  0.003300575  0.003552912  0.002448922
  0.003332217  0.002318669  0.001806605  0.002350079  0.003264514  0.003311639
  0.002177591  0.000662507 -0.000442621 -0.000964653 -0.000878433  0.000015347
  0.001794289  0.004408445  0.008067277  0.012958351  0.018387162  0.022878344
  0.025450234  0.026211562  0.025450234  0.022878344  0.018387162  0.012958351
  0.008067277  0.004408445  0.001794289  0.000015347 -0.000878433 -0.000964653
 -0.000442621  0.000662507  0.002177591  0.003311639  0.003264514  0.002350079
  0.002673848  0.002405080  0.002011006  0.002181249  0.002799616  0.003007947
  0.002364123  0.001255566  0.000191673 -0.000607386 -0.000936293 -0.000649733
  0.000015347  0.000866718  0.002413069  0.005205759  0.008521146  0.010737759
  0.011289174  0.011210022  0.011289174  0.010737759  0.008521146  0.005205759
  0.002413069  0.000866718  0.000015347 -0.000649733 -0.000936293 -0.000607386
  0.000191673  0.001255566  0.002364123  0.003007947  0.002799616  0.002181249
  0.001784416  0.002103457  0.001969440  0.001985383  0.002384631  0.002679545
  0.002457591  0.001822289  0.000971779  0.000022776 -0.000710411 -0.000936293
 -0.000878433 -0.000879277 -0.000623562  0.000413923  0.001787762  0.002340572
  0.001848256  0.001427359  0.001848256  0.002340572  0.001787762  0.000413923
 -0.000623562 -0.000879277 -0.000878433 -0.000936293 -0.000710411  0.000022776
  0.000971779  0.001822289  0.002457591  0.002679545  0.002384631  0.001985383
  0.001017762  0.001657444  0.001838450  0.001925636  0.002246815  0.002552602
  0.002551968  0.002285569  0.001775804  0.000947735  0.000022776 -0.000607386
 -0.000964653 -0.001381409 -0.001836648 -0.002023699 -0.002079923 -0.002538001
 -0.003385157 -0.003836881 -0.003385157 -0.002538001 -0.002079923 -0.002023699
 -0.001836648 -0.001381409 -0.000964653 -0.000607386  0.000022776  0.000947735
  0.001775804  0.002285569  0.002551968  0.002552602  0.002246815  0.001925636
  0.000296710  0.001103414  0.001593463  0.001854699  0.002170581  0.002434474
  0.002497900  0.002452620  0.002281591  0.001775804  0.000971779  0.000191673
 -0.000442621 -0.001096903 -0.001811999 -0.002444060 -0.003031567 -0.003778825
 -0.004580590 -0.004946228 -0.004580590 -0.003778825 -0.003031567 -0.002444060
 -0.001811999 -0.001096903 -0.000442621  0.000191673  0.000971779  0.001775804
  0.002281591  0.002452620  0.002497900  0.002434474  0.002170581  0.001854699
 -0.000853809  0.000069591  0.000843423  0.001318452  0.001705194  0.002009902
  0.002192765  0.002351694  0.002452620  0.002285569  0.001822289  0.001255566
  0.000662507 -0.000030984 -0.000792945 -0.001521521 -0.002282554 -0.003191546
 -0.004060266 -0.004432610 -0.004060266 -0.003191546 -0.002282554 -0.001521521
 -0.000792945 -0.000030984  0.000662507  0.001255566  0.001822289  0.002285569
  0.002452620  0.002351694  0.002192765  0.002009902  0.001705194  0.001318452
 -0.002441772 -0.001654582 -0.000770956 -0.000053522  0.000601030  0.001208680
  0.001735682  0.002192765  0.002497900  0.002551968  0.002457591  0.002364123
  0.002177591  0.001723906  0.001071842  0.000406548 -0.000279136 -0.001077293
 -0.001827935 -0.002147049 -0.001827935 -0.001077293 -0.000279136  0.000406548
  0.001071842  0.001723906  0.002177591  0.002364123  0.002457591  0.002551968
  0.002497900  0.002192765  0.001735682  0.001208680  0.000601030 -0.000053522
 -0.003664277 -0.003593651 -0.003089295 -0.002243412 -0.001098220  0.000128296
  0.001208680  0.002009902  0.002434474  0.002552602  0.002679545  0.003007947
  0.003311639  0.003300575  0.003085973  0.003008296  0.003165378  0.003371502
  0.003475462  0.003495897  0.003475462  0.003371502  0.003165378  0.003008296
  0.003085973  0.003300575  0.003311639  0.003007947  0.002679545  0.002552602
  0.002434474  0.002009902  0.001208680  0.000128296 -0.001098220 -0.002243412
 -0.003337868 -0.004561258 -0.005167074 -0.004643083 -0.003065798 -0.001098220
  0.000601030  0.001705194  0.002170581  0.002246815  0.002384631  0.002799616
  0.003264514  0.003552912  0.003847538  0.004444206  0.005269394  0.005966668
  0.006330763  0.006425888  0.006330763  0.005966668  0.005269394  0.004444206
  0.003847538  0.003552912  0.003264514  0.002799616  0.002384631  0.002246815
  0.002170581  0.001705194  0.000601030 -0.001098220 -0.003065798 -0.004643083
 -0.000486203 -0.003138860 -0.005495759 -0.006069064 -0.004643083 -0.002243412
 -0.000053522  0.001318452  0.001854699  0.001925636  0.001985383  0.002181249
  0.002350079  0.002448922  0.002609806  0.002592599  0.001668173 -0.000477699
 -0.002911301 -0.003995178 -0.002911301 -0.000477699  0.001668173  0.002592599
  0.002609806  0.002448922  0.002350079  0.002181249  0.001985383  0.001925636
  0.001854699  0.001318452 -0.000053522 -0.002243412 -0.004643083 -0.006069064
  0.004656603 -0.000805099 -0.007081806 -0.011343002 -0.012192874 -0.010228825
 -0.007098665 -0.004316733 -0.002522882 -0.001348556 -0.000131777  0.001095821
  0.001797097  0.002319935  0.004296376  0.008835701  0.014744445  0.019487976
  0.021794201  0.022334437  0.021794201  0.019487976  0.014744445  0.008835701
  0.004296376  0.002319935  0.001797097  0.001095821 -0.000131777 -0.001348556
 -0.002522882 -0.004316733 -0.007098665 -0.010228825 -0.012192874 -0.011343002
 -0.000805099 -0.006439034 -0.012114369 -0.014841205 -0.013652436 -0.010019039
 -0.006172954 -0.003455588 -0.001931547 -0.000923121  0.000126865  0.001080690
  0.001526471  0.001773546  0.002731402  0.004332902  0.004835160  0.002743980
 -0.000769247 -0.002519032 -0.000769247  0.002743980  0.004835160  0.004332902
  0.002731402  0.001773546  0.001526471  0.001080690  0.000126865 -0.000923121
 -0.001931547 -0.003455588 -0.006172954 -0.010019039 -0.013652436 -0.014841205
 -0.007081806 -0.012114369 -0.015974170 -0.016335539 -0.013227814 -0.008805272
 -0.005176597 -0.002984150 -0.001747481 -0.000772511  0.000308043  0.001375051
  0.002155289  0.002901074  0.004371212  0.006707357  0.008745948  0.009172619
  0.008244446  0.007611967  0.008244446  0.009172619  0.008745948  0.006707357
  0.004371212  0.002901074  0.002155289  0.001375051  0.000308043 -0.000772511
 -0.001747481 -0.002984150 -0.005176597 -0.008805272 -0.013227814 -0.016335539
 -0.011343002 -0.014841205 -0.016335539 -0.014690456 -0.010815878 -0.006840437
 -0.004072092 -0.002355989 -0.001076299  0.000079437  0.001235350  0.002416072
  0.003494072  0.004610738  0.006580995  0.010279743  0.015516847  0.020884322
  0.024748466  0.026128037  0.024748466  0.020884322  0.015516847  0.010279743
  0.006580995  0.004610738  0.003494072  0.002416072  0.001235350  0.000079437
 -0.001076299 -0.002355989 -0.004072092 -0.006840437 -0.010815878 -0.014690456
 -0.012192874 -0.013652436 -0.013227814 -0.010815878 -0.007516588 -0.004741979
 -0.002832670 -0.001207198  0.000406432  0.001729364  0.002698454  0.003588721
  0.004450688  0.005246233  0.006590572  0.009606526  0.014699282  0.020747586
  0.025643834  0.027516414  0.025643834  0.020747586  0.014699282  0.009606526
  0.006590572  0.005246233  0.004450688  0.003588721  0.002698454  0.001729364
  0.000406432 -0.001207198 -0.002832670 -0.004741979 -0.007516588 -0.010815878
 -0.010228825 -0.010019039 -0.008805272 -0.006840437 -0.004741979 -0.003075050
 -0.001632894  0.000102942  0.001924922  0.003124832  0.003588259  0.003839624
  0.004125187  0.004283414  0.004528495  0.005595082  0.007864327  0.010752541
  0.013115507  0.014014545  0.013115507  0.010752541  0.007864327  0.005595082
  0.004528495  0.004283414  0.004125187  0.003839624  0.003588259  0.003124832
  0.001924922  0.000102942 -0.001632894 -0.003075050 -0.004741979 -0.006840437
 -0.007098665 -0.006172954 -0.005176597 -0.004072092 -0.002832670 -0.001632894
 -0.000350561  0.001237300  0.002734911  0.003421013  0.003256168  0.002880671
  0.002665387  0.002444053  0.002131550  0.001953451  0.001998582  0.002047799
  0.001962016  0.001889611  0.001962016  0.002047799  0.001998582  0.001953451
  0.002131550  0.002444053  0.002665387  0.002880671  0.003256168  0.003421013
  0.002734911  0.001237300 -0.000350561 -0.001632894 -0.002832670 -0.004072092
 -0.004316733 -0.003455588 -0.002984150 -0.002355989 -0.001207198  0.000102942
  0.001237300  0.002211117  0.002855069  0.002797388  0.002132750  0.001440875
  0.001045416  0.000762887  0.000374134 -0.000132822 -0.000773876 -0.001587628
 -0.002373076 -0.002710184 -0.002373076 -0.001587628 -0.000773876 -0.000132822
  0.000374134  0.000762887  0.001045416  0.001440875  0.002132750  0.002797388
  0.002855069  0.002211117  0.001237300  0.000102942 -0.001207198 -0.002355989
 -0.002522882 -0.001931547 -0.001747481 -0.001076299  0.000406432  0.001924922
  0.002734911  0.002855069  0.002537754  0.001855416  0.001011460  0.000399241
  0.000124686 -0.000118249 -0.000610899 -0.001353858 -0.002227470 -0.003109750
 -0.003807611 -0.004078716 -0.003807611 -0.003109750 -0.002227470 -0.001353858
 -0.000610899 -0.000118249  0.000124686  0.000399241  0.001011460  0.001855416
  0.002537754  0.002855069  0.002734911  0.001924922  0.000406432 -0.001076299
 -0.001348556 -0.000923121 -0.000772511  0.000079437  0.001729364  0.003124832
  0.003421013  0.002797388  0.001855416  0.000955131  0.000294520  0.000011798
 -0.000029460 -0.000191146 -0.000667162 -0.001349707 -0.002063720 -0.002710740
 -0.003191844 -0.003374404 -0.003191844 -0.002710740 -0.002063720 -0.001349707
 -0.000667162 -0.000191146 -0.000029460  0.000011798  0.000294520  0.000955131
  0.001855416  0.002797388  0.003421013  0.003124832  0.001729364  0.000079437
 -0.000131777  0.000126865  0.000308043  0.001235350  0.002698454  0.003588259
  0.003256168  0.002132750  0.001011460  0.000294520  0.000000000  0.000002168
  0.000111311  0.000224082  0.000478671  0.001066608  0.001904417  0.002669229
  0.003126820  0.003266069  0.003126820  0.002669229  0.001904417  0.001066608
  0.000478671  0.000224082  0.000111311  0.000002168  0.000000000  0.000294520
  0.001011460  0.002132750  0.003256168  0.003588259  0.002698454  0.001235350
  0.001095821  0.001080690  0.001375051  0.002416072  0.003588721  0.003839624
  0.002880671  0.001440875  0.000399241  0.000011798  0.000002168  0.000108415
  0.000439493  0.001441943  0.003557562  0.006806600  0.010646462  0.014220484
  0.016723115  0.017617773  0.016723115  0.014220484  0.010646462  0.006806600
  0.003557562  0.001441943  0.000439493  0.000108415  0.000002168  0.000011798
  0.000399241  0.001440875  0.002880671  0.003839624  0.003588721  0.002416072
  0.001797097  0.001526471  0.002155289  0.003494072  0.004450688  0.004125187
  0.002665387  0.001045416  0.000124686 -0.000029460  0.000111311  0.000439493
  0.001709129  0.004948589  0.010457573  0.017599222  0.025399093  0.032812903
  0.038408553  0.040535104  0.038408553  0.032812903  0.025399093  0.017599222
  0.010457573  0.004948589  0.001709129  0.000439493  0.000111311 -0.000029460
  0.000124686  0.001045416  0.002665387  0.004125187  0.004450688  0.003494072
  0.002319935  0.001773546  0.002901074  0.004610738  0.005246233  0.004283414
  0.002444053  0.000762887 -0.000118249 -0.000191146  0.000224082  0.001441943
  0.004948589  0.012256116  0.023226516  0.036265332  0.049931100  0.063097201
  0.073422456  0.077454175  0.073422456  0.063097201  0.049931100  0.036265332
  0.023226516  0.012256116  0.004948589  0.001441943  0.000224082 -0.000191146
 -0.000118249  0.000762887  0.002444053  0.004283414  0.005246233  0.004610738
  0.004296376  0.002731402  0.004371212  0.006580995  0.006590572  0.004528495
  0.002131550  0.000374134 -0.000610899 -0.000667162  0.000478671  0.003557562
  0.010457573  0.023226516  0.041793598  0.063805406  0.086822821  0.108743937
  0.125713995  0.132290258  0.125713995  0.108743937  0.086822821  0.063805406
  0.041793598  0.023226516  0.010457573  0.003557562  0.000478671 -0.000667162
 -0.000610899  0.000374134  0.002131550  0.004528495  0.006590572  0.006580995
  0.008835701  0.004332902  0.006707357  0.010279743  0.009606526  0.005595082
  0.001953451 -0.000132822 -0.001353858 -0.001349707  0.001066608  0.006806600
  0.017599222  0.036265332  0.063805406  0.097365627  0.132149118  0.163545560
  0.186373752  0.194895992  0.186373752  0.163545560  0.132149118  0.097365627
  0.063805406  0.036265332  0.017599222  0.006806600  0.001066608 -0.001349707
 -0.001353858 -0.000132822  0.001953451  0.005595082  0.009606526  0.010279743
  0.014744445  0.004835160  0.008745948  0.015516847  0.014699282  0.007864327
  0.001998582 -0.000773876 -0.002227470 -0.002063720  0.001904417  0.010646462
  0.025399093  0.049931100  0.086822821  0.132149118  0.176847684  0.212772468
  0.235563879  0.243361243  0.235563879  0.212772468  0.176847684  0.132149118
  0.086822821  0.049931100  0.025399093  0.010646462  0.001904417 -0.002063720
 -0.002227470 -0.000773876  0.001998582  0.007864327  0.014699282  0.015516847
  0.019487976  0.002743980  0.009172619  0.020884322  0.020747586  0.010752541
  0.002047799 -0.001587628 -0.003109750 -0.002710740  0.002669229  0.014220484
  0.032812903  0.063097201  0.108743937  0.163545560  0.212772468  0.244955240
  0.259680048  0.263361415  0.259680048  0.244955240  0.212772468  0.163545560
  0.108743937  0.063097201  0.032812903  0.014220484  0.002669229 -0.002710740
 -0.003109750 -0.001587628  0.002047799  0.010752541  0.020747586  0.020884322
  0.021794201 -0.000769247  0.008244446  0.024748466  0.025643834  0.013115507
  0.001962016 -0.002373076 -0.003807611 -0.003191844  0.003126820  0.016723115
  0.038408553  0.073422456  0.125713995  0.186373752  0.235563879  0.259680048
  0.263309772  0.261805331  0.263309772  0.259680048  0.235563879  0.186373752
  0.125713995  0.073422456  0.038408553  0.016723115  0.003126820 -0.003191844
 -0.003807611 -0.002373076  0.001962016  0.013115507  0.025643834  0.024748466
  0.022334437 -0.002519032  0.007611967  0.026128037  0.027516414  0.014014545
  0.001889611 -0.002710184 -0.004078716 -0.003374404  0.003266069  0.017617773
  0.040535104  0.077454175  0.132290258  0.194895992  0.243361243  0.263361415
  0.261805331  0.257933526  0.261805331  0.263361415  0.243361243  0.194895992
  0.132290258  0.077454175  0.040535104  0.017617773  0.003266069 -0.003374404
 -0.004078716 -0.002710184  0.001889611  0.014014545  0.027516414  0.026128037
  0.021794201 -0.000769247  0.008244446  0.024748466  0.025643834  0.013115507
  0.001962016 -0.002373076 -0.003807611 -0.003191844  0.003126820  0.016723115
  0.038408553  0.073422456  0.125713995  0.186373752  0.235563879  0.259680048
  0.263309772  0.261805331  0.263309772  0.259680048  0.235563879  0.186373752
  0.125713995  0.073422456  0.038408553  0.016723115  0.003126820 -0.003191844
 -0.003807611 -0.002373076  0.001962016  0.013115507  0.025643834  0.024748466
  0.019487976  0.002743980  0.009172619  0.020884322  0.020747586  0.010752541
  0.002047799 -0.001587628 -0.003109750 -0.002710740  0.002669229  0.014220484
  0.032812903  0.063097201  0.108743937  0.163545560  0.212772468  0.244955240
  0.259680048  0.263361415  0.259680048  0.244955240  0.212772468  0.163545560
  0.108743937  0.063097201  0.032812903  0.014220484  0.002669229 -0.002710740
 -0.003109750 -0.001587628  0.002047799  0.010752541  0.020747586  0.020884322
  0.014744445  0.004835160  0.008745948  0.015516847  0.014699282  0.007864327
  0.001998582 -0.000773876 -0.002227470 -0.002063720  0.001904417  0.010646462
  0.025399093  0.049931100  0.086822821  0.132149118  0.176847684  0.212772468
  0.235563879  0.243361243  0.235563879  0.212772468  0.176847684  0.132149118
  0.086822821  0.049931100  0.025399093  0.010646462  0.001904417 -0.002063720
 -0.002227470 -0.000773876  0.001998582  0.007864327  0.014699282  0.015516847
  0.008835701  0.004332902  0.006707357  0.010279743  0.009606526  0.005595082
  0.001953451 -0.000132822 -0.001353858 -0.001349707  0.001066608  0.006806600
  0.017599222  0.036265332  0.063805406  0.097365627  0.132149118  0.163545560
  0.186373752  0.194895992  0.186373752  0.163545560  0.132149118  0.097365627
  0.063805406  0.036265332  0.017599222  0.006806600  0.001066608 -0.001349707
 -0.001353858 -0.000132822  0.001953451  0.005595082  0.009606526  0.010279743
  0.004296376  0.002731402  0.004371212  0.006580995  0.006590572  0.004528495
  0.002131550  0.000374134 -0.000610899 -0.000667162  0.000478671  0.003557562
  0.010457573  0.023226516  0.041793598  0.063805406  0.086822821  0.108743937
  0.125713995  0.132290258  0.125713995  0.108743937  0.086822821  0.063805406
  0.041793598  0.023226516  0.010457573  0.003557562  0.000478671 -0.000667162
 -0.000610899  0.000374134  0.002131550  0.004528495  0.006590572  0.006580995
  0.002319935  0.001773546  0.002901074  0.004610738  0.005246233  0.004283414
  0.002444053  0.000762887 -0.000118249 -0.000191146  0.000224082  0.001441943
  0.004948589  0.012256116  0.023226516  0.036265332  0.049931100  0.063097201
  0.073422456  0.077454175  0.073422456  0.063097201  0.049931100  0.036265332
  0.023226516  0.012256116  0.004948589  0.001441943  0.000224082 -0.000191146
 -0.000118249  0.000762887  0.002444053  0.004283414  0.005246233  0.004610738
  0.001797097  0.001526471  0.002155289  0.003494072  0.004450688  0.004125187
  0.002665387  0.001045416  0.000124686 -0.000029460  0.000111311  0.000439493
  0.001709129  0.004948589  0.010457573  0.017599222  0.025399093  0.032812903
  0.038408553  0.040535104  0.038408553  0.032812903  0.025399093  0.017599222